
Host: rco-Inspiron-7577

Timers On : Thu Jan 30 16:13:40 2020
Timers Off: Thu Jan 30 16:13:40 2020

Wall Time:        0.00 seconds


***********************************************************

Host: rco-Inspiron-7577

Timers On : Thu Jan 30 16:16:16 2020
Timers Off: Thu Jan 30 16:16:16 2020

Wall Time:        0.00 seconds


***********************************************************

Host: rco-Inspiron-7577

Timers On : Thu Jan 30 16:17:15 2020
Timers Off: Thu Jan 30 16:17:15 2020

Wall Time:        0.00 seconds


***********************************************************

Host: rco-Inspiron-7577

Timers On : Thu Jan 30 16:18:33 2020
Timers Off: Thu Jan 30 16:18:33 2020

Wall Time:        0.00 seconds


***********************************************************

Host: rco-Inspiron-7577

Timers On : Thu Jan 30 16:23:09 2020
Timers Off: Thu Jan 30 16:23:09 2020

Wall Time:        0.00 seconds


***********************************************************
